data_Cu-BTC

_audit_creation_method RASPA-1.0
_audit_creation_date 2022-8-11
_audit_author_name 'Shivam Parashar'

_citation_author_name        'S.S.Y. Chui, S.M.F. Lo, J.P.H. Charmant, A.G. Orpen, I.D. Williams'
_citation_title              'A chemically functionalizable nanoporous material [Cu-3(TMA)(2)(H2O)(3)](n)'
_citation_journal_abbrev     'Science'
_citation_journal_volume     283
_citation_page_first         1148
_citation_page_last          1150
_citation_year               1999

_cell_length_a    26.343
_cell_length_b    26.343
_cell_length_c    26.343
_cell_angle_alpha 90
_cell_angle_beta  90
_cell_angle_gamma 90
_cell_volume      18280.8

_symmetry_cell_setting          cubic
_symmetry_space_group_name_Hall 'P 1'
_symmetry_space_group_name_H-M  'P 1'
_symmetry_Int_Tables_number     1

_symmetry_equiv_pos_as_xyz 'x,y,z'

loop_
_atom_site_label
_atom_site_type_symbol
_atom_site_fract_x
_atom_site_fract_y
_atom_site_fract_z
_atom_site_charge
Cu1      Cu     0.285300000000     0.285300000000     0.000000000000     1.248      
O1       O      0.316600000000     0.243100000000     0.947800000000    -0.624      
C1       C      0.296800000000     0.203200000000     0.931300000000     0.494      
C2       C      0.322000000000     0.178000000000     0.887000000000     0.13       
C3       C      0.365500000000     0.199400000000     0.865500000000    -0.156      
H1       H      0.380200000000     0.228000000000     0.880200000000     0.156      
Cu1      Cu     0.714700000000     0.285300000000     0.000000000000     1.248      
O1       O      0.756900000000     0.316600000000     0.947800000000    -0.624      
C1       C      0.796800000000     0.296800000000     0.931300000000     0.494      
C2       C      0.822000000000     0.322000000000     0.887000000000     0.13       
C3       C      0.800600000000     0.365500000000     0.865500000000    -0.156      
H1       H      0.772000000000     0.380200000000     0.880200000000     0.156      
Cu1      Cu     0.714700000000     0.714700000000     0.000000000000     1.248      
O1       O      0.683400000000     0.756900000000     0.947800000000    -0.624      
C1       C      0.703200000000     0.796800000000     0.931300000000     0.494      
C2       C      0.678000000000     0.822000000000     0.887000000000     0.13       
C3       C      0.634500000000     0.800600000000     0.865500000000    -0.156      
H1       H      0.619800000000     0.772000000000     0.880200000000     0.156      
Cu1      Cu     0.285300000000     0.714700000000     0.000000000000     1.248      
O1       O      0.243100000000     0.683400000000     0.947800000000    -0.624      
C1       C      0.203200000000     0.703200000000     0.931300000000     0.494      
C2       C      0.178000000000     0.678000000000     0.887000000000     0.13       
C3       C      0.199400000000     0.634500000000     0.865500000000    -0.156      
H1       H      0.228000000000     0.619800000000     0.880200000000     0.156      
O1       O      0.316600000000     0.756900000000     0.052200000000    -0.624      
C1       C      0.296800000000     0.796800000000     0.068700000000     0.494      
C2       C      0.322000000000     0.822000000000     0.113000000000     0.13       
C3       C      0.365500000000     0.800600000000     0.134500000000    -0.156      
H1       H      0.380200000000     0.772000000000     0.119800000000     0.156      
O1       O      0.243100000000     0.316600000000     0.052200000000    -0.624      
C1       C      0.203200000000     0.296800000000     0.068700000000     0.494      
C2       C      0.178000000000     0.322000000000     0.113000000000     0.13       
C3       C      0.199400000000     0.365500000000     0.134500000000    -0.156      
H1       H      0.228000000000     0.380200000000     0.119800000000     0.156      
O1       O      0.683400000000     0.243100000000     0.052200000000    -0.624      
C1       C      0.703200000000     0.203200000000     0.068700000000     0.494      
C2       C      0.678000000000     0.178000000000     0.113000000000     0.13       
C3       C      0.634500000000     0.199400000000     0.134500000000    -0.156      
H1       H      0.619800000000     0.228000000000     0.119800000000     0.156      
O1       O      0.756900000000     0.683400000000     0.052200000000    -0.624      
C1       C      0.796800000000     0.703200000000     0.068700000000     0.494      
C2       C      0.822000000000     0.678000000000     0.113000000000     0.13       
C3       C      0.800600000000     0.634500000000     0.134500000000    -0.156      
H1       H      0.772000000000     0.619800000000     0.119800000000     0.156      
Cu1      Cu     0.000000000000     0.285300000000     0.285300000000     1.248      
O1       O      0.947800000000     0.316600000000     0.243100000000    -0.624      
C1       C      0.931300000000     0.296800000000     0.203200000000     0.494      
C2       C      0.887000000000     0.322000000000     0.178000000000     0.13       
C3       C      0.865500000000     0.365500000000     0.199400000000    -0.156      
H1       H      0.880200000000     0.380200000000     0.228000000000     0.156      
Cu1      Cu     0.714700000000     0.000000000000     0.285300000000     1.248      
O1       O      0.683400000000     0.947800000000     0.243100000000    -0.624      
C1       C      0.703200000000     0.931300000000     0.203200000000     0.494      
C2       C      0.678000000000     0.887000000000     0.178000000000     0.13       
C3       C      0.634500000000     0.865500000000     0.199400000000    -0.156      
H1       H      0.619800000000     0.880200000000     0.228000000000     0.156      
Cu1      Cu     0.000000000000     0.714700000000     0.285300000000     1.248      
O1       O      0.052200000000     0.683400000000     0.243100000000    -0.624      
C1       C      0.068700000000     0.703200000000     0.203200000000     0.494      
C2       C      0.113000000000     0.678000000000     0.178000000000     0.13       
C3       C      0.134500000000     0.634500000000     0.199400000000    -0.156      
H1       H      0.119800000000     0.619800000000     0.228000000000     0.156      
Cu1      Cu     0.285300000000     0.000000000000     0.285300000000     1.248      
O1       O      0.316600000000     0.052200000000     0.243100000000    -0.624      
C1       C      0.296800000000     0.068700000000     0.203200000000     0.494      
C2       C      0.322000000000     0.113000000000     0.178000000000     0.13       
C3       C      0.365500000000     0.134500000000     0.199400000000    -0.156      
H1       H      0.380200000000     0.119800000000     0.228000000000     0.156      
Cu1      Cu     0.000000000000     0.714700000000     0.714700000000     1.248      
O1       O      0.947800000000     0.683400000000     0.756900000000    -0.624      
C1       C      0.931300000000     0.703200000000     0.796800000000     0.494      
C2       C      0.887000000000     0.678000000000     0.822000000000     0.13       
C3       C      0.865500000000     0.634500000000     0.800600000000    -0.156      
H1       H      0.880200000000     0.619800000000     0.772000000000     0.156      
Cu1      Cu     0.285300000000     0.000000000000     0.714700000000     1.248      
O1       O      0.316600000000     0.947800000000     0.756900000000    -0.624      
C1       C      0.296800000000     0.931300000000     0.796800000000     0.494      
C2       C      0.322000000000     0.887000000000     0.822000000000     0.13       
C3       C      0.365500000000     0.865500000000     0.800600000000    -0.156      
H1       H      0.380200000000     0.880200000000     0.772000000000     0.156      
Cu1      Cu     0.000000000000     0.285300000000     0.714700000000     1.248      
O1       O      0.052200000000     0.316600000000     0.756900000000    -0.624      
C1       C      0.068700000000     0.296800000000     0.796800000000     0.494      
C2       C      0.113000000000     0.322000000000     0.822000000000     0.13       
C3       C      0.134500000000     0.365500000000     0.800600000000    -0.156      
H1       H      0.119800000000     0.380200000000     0.772000000000     0.156      
Cu1      Cu     0.714700000000     0.000000000000     0.714700000000     1.248      
O1       O      0.683400000000     0.052200000000     0.756900000000    -0.624      
C1       C      0.703200000000     0.068700000000     0.796800000000     0.494      
C2       C      0.678000000000     0.113000000000     0.822000000000     0.13       
C3       C      0.634500000000     0.134500000000     0.800600000000    -0.156      
H1       H      0.619800000000     0.119800000000     0.772000000000     0.156      
O1       O      0.243100000000     0.947800000000     0.316600000000    -0.624      
C1       C      0.203200000000     0.931300000000     0.296800000000     0.494      
C2       C      0.178000000000     0.887000000000     0.322000000000     0.13       
C3       C      0.199400000000     0.865500000000     0.365500000000    -0.156      
H1       H      0.228000000000     0.880200000000     0.380200000000     0.156      
O1       O      0.243100000000     0.052200000000     0.683400000000    -0.624      
C1       C      0.203200000000     0.068700000000     0.703200000000     0.494      
C2       C      0.178000000000     0.113000000000     0.678000000000     0.13       
C3       C      0.199400000000     0.134500000000     0.634500000000    -0.156      
H1       H      0.228000000000     0.119800000000     0.619800000000     0.156      
O1       O      0.947800000000     0.243100000000     0.683400000000    -0.624      
C1       C      0.931300000000     0.203200000000     0.703200000000     0.494      
C2       C      0.887000000000     0.178000000000     0.678000000000     0.13       
C3       C      0.865500000000     0.199400000000     0.634500000000    -0.156      
H1       H      0.880200000000     0.228000000000     0.619800000000     0.156      
O1       O      0.756900000000     0.947800000000     0.683400000000    -0.624      
C1       C      0.796800000000     0.931300000000     0.703200000000     0.494      
C2       C      0.822000000000     0.887000000000     0.678000000000     0.13       
C3       C      0.800600000000     0.865500000000     0.634500000000    -0.156      
H1       H      0.772000000000     0.880200000000     0.619800000000     0.156      
O1       O      0.052200000000     0.756900000000     0.683400000000    -0.624      
C1       C      0.068700000000     0.796800000000     0.703200000000     0.494      
C2       C      0.113000000000     0.822000000000     0.678000000000     0.13       
C3       C      0.134500000000     0.800600000000     0.634500000000    -0.156      
H1       H      0.119800000000     0.772000000000     0.619800000000     0.156      
O1       O      0.756900000000     0.052200000000     0.316600000000    -0.624      
C1       C      0.796800000000     0.068700000000     0.296800000000     0.494      
C2       C      0.822000000000     0.113000000000     0.322000000000     0.13       
C3       C      0.800600000000     0.134500000000     0.365500000000    -0.156      
H1       H      0.772000000000     0.119800000000     0.380200000000     0.156      
O1       O      0.947800000000     0.756900000000     0.316600000000    -0.624      
C1       C      0.931300000000     0.796800000000     0.296800000000     0.494      
C2       C      0.887000000000     0.822000000000     0.322000000000     0.13       
C3       C      0.865500000000     0.800600000000     0.365500000000    -0.156      
H1       H      0.880200000000     0.772000000000     0.380200000000     0.156      
O1       O      0.052200000000     0.243100000000     0.316600000000    -0.624      
C1       C      0.068700000000     0.203200000000     0.296800000000     0.494      
C2       C      0.113000000000     0.178000000000     0.322000000000     0.13       
C3       C      0.134500000000     0.199400000000     0.365500000000    -0.156      
H1       H      0.119800000000     0.228000000000     0.380200000000     0.156      
O1       O      0.683400000000     0.756900000000     0.052200000000    -0.624      
C1       C      0.703200000000     0.796800000000     0.068700000000     0.494      
C2       C      0.678000000000     0.822000000000     0.113000000000     0.13       
C3       C      0.634500000000     0.800600000000     0.134500000000    -0.156      
H1       H      0.619800000000     0.772000000000     0.119800000000     0.156      
O1       O      0.243100000000     0.683400000000     0.052200000000    -0.624      
C1       C      0.203200000000     0.703200000000     0.068700000000     0.494      
C2       C      0.178000000000     0.678000000000     0.113000000000     0.13       
C3       C      0.199400000000     0.634500000000     0.134500000000    -0.156      
H1       H      0.228000000000     0.619800000000     0.119800000000     0.156      
O1       O      0.316600000000     0.243100000000     0.052200000000    -0.624      
C1       C      0.296800000000     0.203200000000     0.068700000000     0.494      
C2       C      0.322000000000     0.178000000000     0.113000000000     0.13       
C3       C      0.365500000000     0.199400000000     0.134500000000    -0.156      
H1       H      0.380200000000     0.228000000000     0.119800000000     0.156      
O1       O      0.756900000000     0.316600000000     0.052200000000    -0.624      
C1       C      0.796800000000     0.296800000000     0.068700000000     0.494      
C2       C      0.822000000000     0.322000000000     0.113000000000     0.13       
C3       C      0.800600000000     0.365500000000     0.134500000000    -0.156      
H1       H      0.772000000000     0.380200000000     0.119800000000     0.156      
O1       O      0.683400000000     0.243100000000     0.947800000000    -0.624      
C1       C      0.703200000000     0.203200000000     0.931300000000     0.494      
C2       C      0.678000000000     0.178000000000     0.887000000000     0.13       
C3       C      0.634500000000     0.199400000000     0.865500000000    -0.156      
H1       H      0.619800000000     0.228000000000     0.880200000000     0.156      
O1       O      0.756900000000     0.683400000000     0.947800000000    -0.624      
C1       C      0.796800000000     0.703200000000     0.931300000000     0.494      
C2       C      0.822000000000     0.678000000000     0.887000000000     0.13       
C3       C      0.800600000000     0.634500000000     0.865500000000    -0.156      
H1       H      0.772000000000     0.619800000000     0.880200000000     0.156      
O1       O      0.316600000000     0.756900000000     0.947800000000    -0.624      
C1       C      0.296800000000     0.796800000000     0.931300000000     0.494      
C2       C      0.322000000000     0.822000000000     0.887000000000     0.13       
C3       C      0.365500000000     0.800600000000     0.865500000000    -0.156      
H1       H      0.380200000000     0.772000000000     0.880200000000     0.156      
O1       O      0.243100000000     0.316600000000     0.947800000000    -0.624      
C1       C      0.203200000000     0.296800000000     0.931300000000     0.494      
C2       C      0.178000000000     0.322000000000     0.887000000000     0.13       
C3       C      0.199400000000     0.365500000000     0.865500000000    -0.156      
H1       H      0.228000000000     0.380200000000     0.880200000000     0.156      
O1       O      0.052200000000     0.683400000000     0.756900000000    -0.624      
C1       C      0.068700000000     0.703200000000     0.796800000000     0.494      
C2       C      0.113000000000     0.678000000000     0.822000000000     0.13       
C3       C      0.134500000000     0.634500000000     0.800600000000    -0.156      
H1       H      0.119800000000     0.619800000000     0.772000000000     0.156      
O1       O      0.316600000000     0.052200000000     0.756900000000    -0.624      
C1       C      0.296800000000     0.068700000000     0.796800000000     0.494      
C2       C      0.322000000000     0.113000000000     0.822000000000     0.13       
C3       C      0.365500000000     0.134500000000     0.800600000000    -0.156      
H1       H      0.380200000000     0.119800000000     0.772000000000     0.156      
O1       O      0.947800000000     0.316600000000     0.756900000000    -0.624      
C1       C      0.931300000000     0.296800000000     0.796800000000     0.494      
C2       C      0.887000000000     0.322000000000     0.822000000000     0.13       
C3       C      0.865500000000     0.365500000000     0.800600000000    -0.156      
H1       H      0.880200000000     0.380200000000     0.772000000000     0.156      
O1       O      0.683400000000     0.947800000000     0.756900000000    -0.624      
C1       C      0.703200000000     0.931300000000     0.796800000000     0.494      
C2       C      0.678000000000     0.887000000000     0.822000000000     0.13       
C3       C      0.634500000000     0.865500000000     0.800600000000    -0.156      
H1       H      0.619800000000     0.880200000000     0.772000000000     0.156      
O1       O      0.052200000000     0.316600000000     0.243100000000    -0.624      
C1       C      0.068700000000     0.296800000000     0.203200000000     0.494      
C2       C      0.113000000000     0.322000000000     0.178000000000     0.13       
C3       C      0.134500000000     0.365500000000     0.199400000000    -0.156      
H1       H      0.119800000000     0.380200000000     0.228000000000     0.156      
O1       O      0.683400000000     0.052200000000     0.243100000000    -0.624      
C1       C      0.703200000000     0.068700000000     0.203200000000     0.494      
C2       C      0.678000000000     0.113000000000     0.178000000000     0.13       
C3       C      0.634500000000     0.134500000000     0.199400000000    -0.156      
H1       H      0.619800000000     0.119800000000     0.228000000000     0.156      
O1       O      0.947800000000     0.683400000000     0.243100000000    -0.624      
C1       C      0.931300000000     0.703200000000     0.203200000000     0.494      
C2       C      0.887000000000     0.678000000000     0.178000000000     0.13       
C3       C      0.865500000000     0.634500000000     0.199400000000    -0.156      
H1       H      0.880200000000     0.619800000000     0.228000000000     0.156      
O1       O      0.316600000000     0.947800000000     0.243100000000    -0.624      
C1       C      0.296800000000     0.931300000000     0.203200000000     0.494      
C2       C      0.322000000000     0.887000000000     0.178000000000     0.13       
C3       C      0.365500000000     0.865500000000     0.199400000000    -0.156      
H1       H      0.380200000000     0.880200000000     0.228000000000     0.156      
O1       O      0.756900000000     0.052200000000     0.683400000000    -0.624      
C1       C      0.796800000000     0.068700000000     0.703200000000     0.494      
C2       C      0.822000000000     0.113000000000     0.678000000000     0.13       
C3       C      0.800600000000     0.134500000000     0.634500000000    -0.156      
H1       H      0.772000000000     0.119800000000     0.619800000000     0.156      
O1       O      0.756900000000     0.947800000000     0.316600000000    -0.624      
C1       C      0.796800000000     0.931300000000     0.296800000000     0.494      
C2       C      0.822000000000     0.887000000000     0.322000000000     0.13       
C3       C      0.800600000000     0.865500000000     0.365500000000    -0.156      
H1       H      0.772000000000     0.880200000000     0.380200000000     0.156      
O1       O      0.052200000000     0.756900000000     0.316600000000    -0.624      
C1       C      0.068700000000     0.796800000000     0.296800000000     0.494      
C2       C      0.113000000000     0.822000000000     0.322000000000     0.13       
C3       C      0.134500000000     0.800600000000     0.365500000000    -0.156      
H1       H      0.119800000000     0.772000000000     0.380200000000     0.156      
O1       O      0.243100000000     0.052200000000     0.316600000000    -0.624      
C1       C      0.203200000000     0.068700000000     0.296800000000     0.494      
C2       C      0.178000000000     0.113000000000     0.322000000000     0.13       
C3       C      0.199400000000     0.134500000000     0.365500000000    -0.156      
H1       H      0.228000000000     0.119800000000     0.380200000000     0.156      
O1       O      0.947800000000     0.243100000000     0.316600000000    -0.624      
C1       C      0.931300000000     0.203200000000     0.296800000000     0.494      
C2       C      0.887000000000     0.178000000000     0.322000000000     0.13       
C3       C      0.865500000000     0.199400000000     0.365500000000    -0.156      
H1       H      0.880200000000     0.228000000000     0.380200000000     0.156      
O1       O      0.243100000000     0.947800000000     0.683400000000    -0.624      
C1       C      0.203200000000     0.931300000000     0.703200000000     0.494      
C2       C      0.178000000000     0.887000000000     0.678000000000     0.13       
C3       C      0.199400000000     0.865500000000     0.634500000000    -0.156      
H1       H      0.228000000000     0.880200000000     0.619800000000     0.156      
O1       O      0.052200000000     0.243100000000     0.683400000000    -0.624      
C1       C      0.068700000000     0.203200000000     0.703200000000     0.494      
C2       C      0.113000000000     0.178000000000     0.678000000000     0.13       
C3       C      0.134500000000     0.199400000000     0.634500000000    -0.156      
H1       H      0.119800000000     0.228000000000     0.619800000000     0.156      
O1       O      0.947800000000     0.756900000000     0.683400000000    -0.624      
C1       C      0.931300000000     0.796800000000     0.703200000000     0.494      
C2       C      0.887000000000     0.822000000000     0.678000000000     0.13       
C3       C      0.865500000000     0.800600000000     0.634500000000    -0.156      
H1       H      0.880200000000     0.772000000000     0.619800000000     0.156      
Cu1      Cu     0.285300000000     0.785300000000     0.500000000000     1.248      
O1       O      0.316600000000     0.743100000000     0.447800000000    -0.624      
C1       C      0.296800000000     0.703200000000     0.431300000000     0.494      
C2       C      0.322000000000     0.678000000000     0.387000000000     0.13       
C3       C      0.365500000000     0.699400000000     0.365500000000    -0.156      
H1       H      0.380200000000     0.728000000000     0.380200000000     0.156      
Cu1      Cu     0.714700000000     0.785300000000     0.500000000000     1.248      
O1       O      0.756900000000     0.816600000000     0.447800000000    -0.624      
C1       C      0.796800000000     0.796800000000     0.431300000000     0.494      
C2       C      0.822000000000     0.822000000000     0.387000000000     0.13       
Cu1      Cu     0.714700000000     0.214700000000     0.500000000000     1.248      
O1       O      0.683400000000     0.256900000000     0.447800000000    -0.624      
C1       C      0.703200000000     0.296800000000     0.431300000000     0.494      
C2       C      0.678000000000     0.322000000000     0.387000000000     0.13       
C3       C      0.634500000000     0.300600000000     0.365500000000    -0.156      
H1       H      0.619800000000     0.272000000000     0.380200000000     0.156      
Cu1      Cu     0.285300000000     0.214700000000     0.500000000000     1.248      
O1       O      0.243100000000     0.183400000000     0.447800000000    -0.624      
C1       C      0.203200000000     0.203200000000     0.431300000000     0.494      
C2       C      0.178000000000     0.178000000000     0.387000000000     0.13       
O1       O      0.316600000000     0.256900000000     0.552200000000    -0.624      
C1       C      0.296800000000     0.296800000000     0.568700000000     0.494      
C2       C      0.322000000000     0.322000000000     0.613000000000     0.13       
C3       C      0.365500000000     0.300600000000     0.634500000000    -0.156      
H1       H      0.380200000000     0.272000000000     0.619800000000     0.156      
O1       O      0.243100000000     0.816600000000     0.552200000000    -0.624      
C1       C      0.203200000000     0.796800000000     0.568700000000     0.494      
C2       C      0.178000000000     0.822000000000     0.613000000000     0.13       
O1       O      0.683400000000     0.743100000000     0.552200000000    -0.624      
C1       C      0.703200000000     0.703200000000     0.568700000000     0.494      
C2       C      0.678000000000     0.678000000000     0.613000000000     0.13       
C3       C      0.634500000000     0.699400000000     0.634500000000    -0.156      
H1       H      0.619800000000     0.728000000000     0.619800000000     0.156      
O1       O      0.756900000000     0.183400000000     0.552200000000    -0.624      
C1       C      0.796800000000     0.203200000000     0.568700000000     0.494      
C2       C      0.822000000000     0.178000000000     0.613000000000     0.13       
Cu1      Cu     0.000000000000     0.785300000000     0.785300000000     1.248      
O1       O      0.947800000000     0.816600000000     0.743100000000    -0.624      
C3       C      0.865500000000     0.865500000000     0.699400000000    -0.156      
H1       H      0.880200000000     0.880200000000     0.728000000000     0.156      
Cu1      Cu     0.714700000000     0.500000000000     0.785300000000     1.248      
O1       O      0.683400000000     0.447800000000     0.743100000000    -0.624      
C1       C      0.703200000000     0.431300000000     0.703200000000     0.494      
C2       C      0.678000000000     0.387000000000     0.678000000000     0.13       
C3       C      0.634500000000     0.365500000000     0.699400000000    -0.156      
H1       H      0.619800000000     0.380200000000     0.728000000000     0.156      
Cu1      Cu     0.000000000000     0.214700000000     0.785300000000     1.248      
O1       O      0.052200000000     0.183400000000     0.743100000000    -0.624      
C3       C      0.134500000000     0.134500000000     0.699400000000    -0.156      
H1       H      0.119800000000     0.119800000000     0.728000000000     0.156      
Cu1      Cu     0.285300000000     0.500000000000     0.785300000000     1.248      
O1       O      0.316600000000     0.552200000000     0.743100000000    -0.624      
C1       C      0.296800000000     0.568700000000     0.703200000000     0.494      
C2       C      0.322000000000     0.613000000000     0.678000000000     0.13       
C3       C      0.365500000000     0.634500000000     0.699400000000    -0.156      
H1       H      0.380200000000     0.619800000000     0.728000000000     0.156      
Cu1      Cu     0.000000000000     0.214700000000     0.214700000000     1.248      
O1       O      0.947800000000     0.183400000000     0.256900000000    -0.624      
C3       C      0.865500000000     0.134500000000     0.300600000000    -0.156      
H1       H      0.880200000000     0.119800000000     0.272000000000     0.156      
Cu1      Cu     0.285300000000     0.500000000000     0.214700000000     1.248      
O1       O      0.316600000000     0.447800000000     0.256900000000    -0.624      
C1       C      0.296800000000     0.431300000000     0.296800000000     0.494      
C2       C      0.322000000000     0.387000000000     0.322000000000     0.13       
C3       C      0.365500000000     0.365500000000     0.300600000000    -0.156      
H1       H      0.380200000000     0.380200000000     0.272000000000     0.156      
Cu1      Cu     0.000000000000     0.785300000000     0.214700000000     1.248      
O1       O      0.052200000000     0.816600000000     0.256900000000    -0.624      
C3       C      0.134500000000     0.865500000000     0.300600000000    -0.156      
H1       H      0.119800000000     0.880200000000     0.272000000000     0.156      
Cu1      Cu     0.714700000000     0.500000000000     0.214700000000     1.248      
O1       O      0.683400000000     0.552200000000     0.256900000000    -0.624      
C1       C      0.703200000000     0.568700000000     0.296800000000     0.494      
C2       C      0.678000000000     0.613000000000     0.322000000000     0.13       
C3       C      0.634500000000     0.634500000000     0.300600000000    -0.156      
H1       H      0.619800000000     0.619800000000     0.272000000000     0.156      
O1       O      0.243100000000     0.447800000000     0.816600000000    -0.624      
C1       C      0.203200000000     0.431300000000     0.796800000000     0.494      
C2       C      0.178000000000     0.387000000000     0.822000000000     0.13       
O1       O      0.243100000000     0.552200000000     0.183400000000    -0.624      
C1       C      0.203200000000     0.568700000000     0.203200000000     0.494      
C2       C      0.178000000000     0.613000000000     0.178000000000     0.13       
O1       O      0.947800000000     0.743100000000     0.183400000000    -0.624      
C3       C      0.865500000000     0.699400000000     0.134500000000    -0.156      
H1       H      0.880200000000     0.728000000000     0.119800000000     0.156      
O1       O      0.756900000000     0.447800000000     0.183400000000    -0.624      
C1       C      0.796800000000     0.431300000000     0.203200000000     0.494      
C2       C      0.822000000000     0.387000000000     0.178000000000     0.13       
O1       O      0.052200000000     0.256900000000     0.183400000000    -0.624      
C3       C      0.134500000000     0.300600000000     0.134500000000    -0.156      
H1       H      0.119800000000     0.272000000000     0.119800000000     0.156      
O1       O      0.756900000000     0.552200000000     0.816600000000    -0.624      
C1       C      0.796800000000     0.568700000000     0.796800000000     0.494      
C2       C      0.822000000000     0.613000000000     0.822000000000     0.13       
O1       O      0.947800000000     0.256900000000     0.816600000000    -0.624      
C3       C      0.865500000000     0.300600000000     0.865500000000    -0.156      
H1       H      0.880200000000     0.272000000000     0.880200000000     0.156      
O1       O      0.052200000000     0.743100000000     0.816600000000    -0.624      
C3       C      0.134500000000     0.699400000000     0.865500000000    -0.156      
H1       H      0.119800000000     0.728000000000     0.880200000000     0.156      
O1       O      0.683400000000     0.256900000000     0.552200000000    -0.624      
C1       C      0.703200000000     0.296800000000     0.568700000000     0.494      
C2       C      0.678000000000     0.322000000000     0.613000000000     0.13       
C3       C      0.634500000000     0.300600000000     0.634500000000    -0.156      
H1       H      0.619800000000     0.272000000000     0.619800000000     0.156      
O1       O      0.243100000000     0.183400000000     0.552200000000    -0.624      
C1       C      0.203200000000     0.203200000000     0.568700000000     0.494      
C2       C      0.178000000000     0.178000000000     0.613000000000     0.13       
O1       O      0.316600000000     0.743100000000     0.552200000000    -0.624      
C1       C      0.296800000000     0.703200000000     0.568700000000     0.494      
C2       C      0.322000000000     0.678000000000     0.613000000000     0.13       
C3       C      0.365500000000     0.699400000000     0.634500000000    -0.156      
H1       H      0.380200000000     0.728000000000     0.619800000000     0.156      
O1       O      0.756900000000     0.816600000000     0.552200000000    -0.624      
C1       C      0.796800000000     0.796800000000     0.568700000000     0.494      
C2       C      0.822000000000     0.822000000000     0.613000000000     0.13       
O1       O      0.683400000000     0.743100000000     0.447800000000    -0.624      
C1       C      0.703200000000     0.703200000000     0.431300000000     0.494      
C2       C      0.678000000000     0.678000000000     0.387000000000     0.13       
C3       C      0.634500000000     0.699400000000     0.365500000000    -0.156      
H1       H      0.619800000000     0.728000000000     0.380200000000     0.156      
O1       O      0.756900000000     0.183400000000     0.447800000000    -0.624      
C1       C      0.796800000000     0.203200000000     0.431300000000     0.494      
C2       C      0.822000000000     0.178000000000     0.387000000000     0.13       
O1       O      0.316600000000     0.256900000000     0.447800000000    -0.624      
C1       C      0.296800000000     0.296800000000     0.431300000000     0.494      
C2       C      0.322000000000     0.322000000000     0.387000000000     0.13       
C3       C      0.365500000000     0.300600000000     0.365500000000    -0.156      
H1       H      0.380200000000     0.272000000000     0.380200000000     0.156      
O1       O      0.243100000000     0.816600000000     0.447800000000    -0.624      
C1       C      0.203200000000     0.796800000000     0.431300000000     0.494      
C2       C      0.178000000000     0.822000000000     0.387000000000     0.13       
O1       O      0.052200000000     0.183400000000     0.256900000000    -0.624      
C3       C      0.134500000000     0.134500000000     0.300600000000    -0.156      
H1       H      0.119800000000     0.119800000000     0.272000000000     0.156      
O1       O      0.316600000000     0.552200000000     0.256900000000    -0.624      
C1       C      0.296800000000     0.568700000000     0.296800000000     0.494      
C2       C      0.322000000000     0.613000000000     0.322000000000     0.13       
C3       C      0.365500000000     0.634500000000     0.300600000000    -0.156      
H1       H      0.380200000000     0.619800000000     0.272000000000     0.156      
O1       O      0.947800000000     0.816600000000     0.256900000000    -0.624      
C3       C      0.865500000000     0.865500000000     0.300600000000    -0.156      
H1       H      0.880200000000     0.880200000000     0.272000000000     0.156      
O1       O      0.683400000000     0.447800000000     0.256900000000    -0.624      
C1       C      0.703200000000     0.431300000000     0.296800000000     0.494      
C2       C      0.678000000000     0.387000000000     0.322000000000     0.13       
C3       C      0.634500000000     0.365500000000     0.300600000000    -0.156      
H1       H      0.619800000000     0.380200000000     0.272000000000     0.156      
O1       O      0.052200000000     0.816600000000     0.743100000000    -0.624      
C3       C      0.134500000000     0.865500000000     0.699400000000    -0.156      
H1       H      0.119800000000     0.880200000000     0.728000000000     0.156      
O1       O      0.683400000000     0.552200000000     0.743100000000    -0.624      
C1       C      0.703200000000     0.568700000000     0.703200000000     0.494      
C2       C      0.678000000000     0.613000000000     0.678000000000     0.13       
C3       C      0.634500000000     0.634500000000     0.699400000000    -0.156      
H1       H      0.619800000000     0.619800000000     0.728000000000     0.156      
O1       O      0.947800000000     0.183400000000     0.743100000000    -0.624      
C3       C      0.865500000000     0.134500000000     0.699400000000    -0.156      
H1       H      0.880200000000     0.119800000000     0.728000000000     0.156      
O1       O      0.316600000000     0.447800000000     0.743100000000    -0.624      
C1       C      0.296800000000     0.431300000000     0.703200000000     0.494      
C2       C      0.322000000000     0.387000000000     0.678000000000     0.13       
C3       C      0.365500000000     0.365500000000     0.699400000000    -0.156      
H1       H      0.380200000000     0.380200000000     0.728000000000     0.156      
O1       O      0.756900000000     0.552200000000     0.183400000000    -0.624      
C1       C      0.796800000000     0.568700000000     0.203200000000     0.494      
C2       C      0.822000000000     0.613000000000     0.178000000000     0.13       
O1       O      0.756900000000     0.447800000000     0.816600000000    -0.624      
C1       C      0.796800000000     0.431300000000     0.796800000000     0.494      
C2       C      0.822000000000     0.387000000000     0.822000000000     0.13       
O1       O      0.052200000000     0.256900000000     0.816600000000    -0.624      
C3       C      0.134500000000     0.300600000000     0.865500000000    -0.156      
H1       H      0.119800000000     0.272000000000     0.880200000000     0.156      
O1       O      0.243100000000     0.552200000000     0.816600000000    -0.624      
C1       C      0.203200000000     0.568700000000     0.796800000000     0.494      
C2       C      0.178000000000     0.613000000000     0.822000000000     0.13       
O1       O      0.947800000000     0.743100000000     0.816600000000    -0.624      
C3       C      0.865500000000     0.699400000000     0.865500000000    -0.156      
H1       H      0.880200000000     0.728000000000     0.880200000000     0.156      
O1       O      0.243100000000     0.447800000000     0.183400000000    -0.624      
C1       C      0.203200000000     0.431300000000     0.203200000000     0.494      
C2       C      0.178000000000     0.387000000000     0.178000000000     0.13       
O1       O      0.052200000000     0.743100000000     0.183400000000    -0.624      
C3       C      0.134500000000     0.699400000000     0.134500000000    -0.156      
H1       H      0.119800000000     0.728000000000     0.119800000000     0.156      
O1       O      0.947800000000     0.256900000000     0.183400000000    -0.624      
C3       C      0.865500000000     0.300600000000     0.134500000000    -0.156      
H1       H      0.880200000000     0.272000000000     0.119800000000     0.156      
Cu1      Cu     0.785300000000     0.285300000000     0.500000000000     1.248      
O1       O      0.816600000000     0.243100000000     0.447800000000    -0.624      
Cu1      Cu     0.214700000000     0.285300000000     0.500000000000     1.248      
O1       O      0.256900000000     0.316600000000     0.447800000000    -0.624      
C3       C      0.300600000000     0.365500000000     0.365500000000    -0.156      
H1       H      0.272000000000     0.380200000000     0.380200000000     0.156      
Cu1      Cu     0.214700000000     0.714700000000     0.500000000000     1.248      
O1       O      0.183400000000     0.756900000000     0.447800000000    -0.624      
Cu1      Cu     0.785300000000     0.714700000000     0.500000000000     1.248      
O1       O      0.743100000000     0.683400000000     0.447800000000    -0.624      
C3       C      0.699400000000     0.634500000000     0.365500000000    -0.156      
H1       H      0.728000000000     0.619800000000     0.380200000000     0.156      
O1       O      0.816600000000     0.756900000000     0.552200000000    -0.624      
O1       O      0.743100000000     0.316600000000     0.552200000000    -0.624      
C3       C      0.699400000000     0.365500000000     0.634500000000    -0.156      
H1       H      0.728000000000     0.380200000000     0.619800000000     0.156      
O1       O      0.183400000000     0.243100000000     0.552200000000    -0.624      
O1       O      0.256900000000     0.683400000000     0.552200000000    -0.624      
C3       C      0.300600000000     0.634500000000     0.634500000000    -0.156      
H1       H      0.272000000000     0.619800000000     0.619800000000     0.156      
Cu1      Cu     0.500000000000     0.285300000000     0.785300000000     1.248      
O1       O      0.447800000000     0.316600000000     0.743100000000    -0.624      
C1       C      0.431300000000     0.296800000000     0.703200000000     0.494      
C2       C      0.387000000000     0.322000000000     0.678000000000     0.13       
Cu1      Cu     0.214700000000     0.000000000000     0.785300000000     1.248      
O1       O      0.183400000000     0.947800000000     0.743100000000    -0.624      
Cu1      Cu     0.500000000000     0.714700000000     0.785300000000     1.248      
O1       O      0.552200000000     0.683400000000     0.743100000000    -0.624      
C1       C      0.568700000000     0.703200000000     0.703200000000     0.494      
C2       C      0.613000000000     0.678000000000     0.678000000000     0.13       
Cu1      Cu     0.785300000000     0.000000000000     0.785300000000     1.248      
O1       O      0.816600000000     0.052200000000     0.743100000000    -0.624      
Cu1      Cu     0.500000000000     0.714700000000     0.214700000000     1.248      
O1       O      0.447800000000     0.683400000000     0.256900000000    -0.624      
C1       C      0.431300000000     0.703200000000     0.296800000000     0.494      
C2       C      0.387000000000     0.678000000000     0.322000000000     0.13       
Cu1      Cu     0.785300000000     0.000000000000     0.214700000000     1.248      
O1       O      0.816600000000     0.947800000000     0.256900000000    -0.624      
Cu1      Cu     0.500000000000     0.285300000000     0.214700000000     1.248      
O1       O      0.552200000000     0.316600000000     0.256900000000    -0.624      
C1       C      0.568700000000     0.296800000000     0.296800000000     0.494      
C2       C      0.613000000000     0.322000000000     0.322000000000     0.13       
Cu1      Cu     0.214700000000     0.000000000000     0.214700000000     1.248      
O1       O      0.183400000000     0.052200000000     0.256900000000    -0.624      
O1       O      0.743100000000     0.947800000000     0.816600000000    -0.624      
C3       C      0.699400000000     0.865500000000     0.865500000000    -0.156      
H1       H      0.728000000000     0.880200000000     0.880200000000     0.156      
O1       O      0.743100000000     0.052200000000     0.183400000000    -0.624      
C3       C      0.699400000000     0.134500000000     0.134500000000    -0.156      
H1       H      0.728000000000     0.119800000000     0.119800000000     0.156      
O1       O      0.447800000000     0.243100000000     0.183400000000    -0.624      
C1       C      0.431300000000     0.203200000000     0.203200000000     0.494      
C2       C      0.387000000000     0.178000000000     0.178000000000     0.13       
O1       O      0.256900000000     0.947800000000     0.183400000000    -0.624      
C3       C      0.300600000000     0.865500000000     0.134500000000    -0.156      
H1       H      0.272000000000     0.880200000000     0.119800000000     0.156      
O1       O      0.552200000000     0.756900000000     0.183400000000    -0.624      
C1       C      0.568700000000     0.796800000000     0.203200000000     0.494      
C2       C      0.613000000000     0.822000000000     0.178000000000     0.13       
O1       O      0.256900000000     0.052200000000     0.816600000000    -0.624      
C3       C      0.300600000000     0.134500000000     0.865500000000    -0.156      
H1       H      0.272000000000     0.119800000000     0.880200000000     0.156      
O1       O      0.447800000000     0.756900000000     0.816600000000    -0.624      
C1       C      0.431300000000     0.796800000000     0.796800000000     0.494      
C2       C      0.387000000000     0.822000000000     0.822000000000     0.13       
O1       O      0.552200000000     0.243100000000     0.816600000000    -0.624      
C1       C      0.568700000000     0.203200000000     0.796800000000     0.494      
C2       C      0.613000000000     0.178000000000     0.822000000000     0.13       
O1       O      0.183400000000     0.756900000000     0.552200000000    -0.624      
O1       O      0.743100000000     0.683400000000     0.552200000000    -0.624      
C3       C      0.699400000000     0.634500000000     0.634500000000    -0.156      
H1       H      0.728000000000     0.619800000000     0.619800000000     0.156      
O1       O      0.816600000000     0.243100000000     0.552200000000    -0.624      
O1       O      0.256900000000     0.316600000000     0.552200000000    -0.624      
C3       C      0.300600000000     0.365500000000     0.634500000000    -0.156      
H1       H      0.272000000000     0.380200000000     0.619800000000     0.156      
O1       O      0.183400000000     0.243100000000     0.447800000000    -0.624      
O1       O      0.256900000000     0.683400000000     0.447800000000    -0.624      
C3       C      0.300600000000     0.634500000000     0.365500000000    -0.156      
H1       H      0.272000000000     0.619800000000     0.380200000000     0.156      
O1       O      0.816600000000     0.756900000000     0.447800000000    -0.624      
O1       O      0.743100000000     0.316600000000     0.447800000000    -0.624      
C3       C      0.699400000000     0.365500000000     0.365500000000    -0.156      
H1       H      0.728000000000     0.380200000000     0.380200000000     0.156      
O1       O      0.552200000000     0.683400000000     0.256900000000    -0.624      
C1       C      0.568700000000     0.703200000000     0.296800000000     0.494      
C2       C      0.613000000000     0.678000000000     0.322000000000     0.13       
O1       O      0.816600000000     0.052200000000     0.256900000000    -0.624      
O1       O      0.447800000000     0.316600000000     0.256900000000    -0.624      
C1       C      0.431300000000     0.296800000000     0.296800000000     0.494      
C2       C      0.387000000000     0.322000000000     0.322000000000     0.13       
O1       O      0.183400000000     0.947800000000     0.256900000000    -0.624      
O1       O      0.552200000000     0.316600000000     0.743100000000    -0.624      
C1       C      0.568700000000     0.296800000000     0.703200000000     0.494      
C2       C      0.613000000000     0.322000000000     0.678000000000     0.13       
O1       O      0.183400000000     0.052200000000     0.743100000000    -0.624      
O1       O      0.447800000000     0.683400000000     0.743100000000    -0.624      
C1       C      0.431300000000     0.703200000000     0.703200000000     0.494      
C2       C      0.387000000000     0.678000000000     0.678000000000     0.13       
O1       O      0.816600000000     0.947800000000     0.743100000000    -0.624      
O1       O      0.256900000000     0.052200000000     0.183400000000    -0.624      
C3       C      0.300600000000     0.134500000000     0.134500000000    -0.156      
H1       H      0.272000000000     0.119800000000     0.119800000000     0.156      
O1       O      0.256900000000     0.947800000000     0.816600000000    -0.624      
C3       C      0.300600000000     0.865500000000     0.865500000000    -0.156      
H1       H      0.272000000000     0.880200000000     0.880200000000     0.156      
O1       O      0.552200000000     0.756900000000     0.816600000000    -0.624      
C1       C      0.568700000000     0.796800000000     0.796800000000     0.494      
C2       C      0.613000000000     0.822000000000     0.822000000000     0.13       
O1       O      0.743100000000     0.052200000000     0.816600000000    -0.624      
C3       C      0.699400000000     0.134500000000     0.865500000000    -0.156      
H1       H      0.728000000000     0.119800000000     0.880200000000     0.156      
O1       O      0.447800000000     0.243100000000     0.816600000000    -0.624      
C1       C      0.431300000000     0.203200000000     0.796800000000     0.494      
C2       C      0.387000000000     0.178000000000     0.822000000000     0.13       
O1       O      0.743100000000     0.947800000000     0.183400000000    -0.624      
C3       C      0.699400000000     0.865500000000     0.134500000000    -0.156      
H1       H      0.728000000000     0.880200000000     0.119800000000     0.156      
O1       O      0.552200000000     0.243100000000     0.183400000000    -0.624      
C1       C      0.568700000000     0.203200000000     0.203200000000     0.494      
C2       C      0.613000000000     0.178000000000     0.178000000000     0.13       
O1       O      0.447800000000     0.756900000000     0.183400000000    -0.624      
C1       C      0.431300000000     0.796800000000     0.203200000000     0.494      
C2       C      0.387000000000     0.822000000000     0.178000000000     0.13       
Cu1      Cu     0.785300000000     0.785300000000     0.000000000000     1.248      
O1       O      0.816600000000     0.743100000000     0.947800000000    -0.624      
Cu1      Cu     0.214700000000     0.785300000000     0.000000000000     1.248      
O1       O      0.256900000000     0.816600000000     0.947800000000    -0.624      
Cu1      Cu     0.214700000000     0.214700000000     0.000000000000     1.248      
O1       O      0.183400000000     0.256900000000     0.947800000000    -0.624      
Cu1      Cu     0.785300000000     0.214700000000     0.000000000000     1.248      
O1       O      0.743100000000     0.183400000000     0.947800000000    -0.624      
O1       O      0.816600000000     0.256900000000     0.052200000000    -0.624      
O1       O      0.743100000000     0.816600000000     0.052200000000    -0.624      
O1       O      0.183400000000     0.743100000000     0.052200000000    -0.624      
O1       O      0.256900000000     0.183400000000     0.052200000000    -0.624      
Cu1      Cu     0.500000000000     0.785300000000     0.285300000000     1.248      
O1       O      0.447800000000     0.816600000000     0.243100000000    -0.624      
Cu1      Cu     0.214700000000     0.500000000000     0.285300000000     1.248      
O1       O      0.183400000000     0.447800000000     0.243100000000    -0.624      
Cu1      Cu     0.500000000000     0.214700000000     0.285300000000     1.248      
O1       O      0.552200000000     0.183400000000     0.243100000000    -0.624      
Cu1      Cu     0.785300000000     0.500000000000     0.285300000000     1.248      
O1       O      0.816600000000     0.552200000000     0.243100000000    -0.624      
Cu1      Cu     0.500000000000     0.214700000000     0.714700000000     1.248      
O1       O      0.447800000000     0.183400000000     0.756900000000    -0.624      
Cu1      Cu     0.785300000000     0.500000000000     0.714700000000     1.248      
O1       O      0.816600000000     0.447800000000     0.756900000000    -0.624      
Cu1      Cu     0.500000000000     0.785300000000     0.714700000000     1.248      
O1       O      0.552200000000     0.816600000000     0.756900000000    -0.624      
Cu1      Cu     0.214700000000     0.500000000000     0.714700000000     1.248      
O1       O      0.183400000000     0.552200000000     0.756900000000    -0.624      
O1       O      0.743100000000     0.447800000000     0.316600000000    -0.624      
O1       O      0.743100000000     0.552200000000     0.683400000000    -0.624      
O1       O      0.447800000000     0.743100000000     0.683400000000    -0.624      
O1       O      0.256900000000     0.447800000000     0.683400000000    -0.624      
O1       O      0.552200000000     0.256900000000     0.683400000000    -0.624      
O1       O      0.256900000000     0.552200000000     0.316600000000    -0.624      
O1       O      0.447800000000     0.256900000000     0.316600000000    -0.624      
O1       O      0.552200000000     0.743100000000     0.316600000000    -0.624      
O1       O      0.183400000000     0.256900000000     0.052200000000    -0.624      
O1       O      0.743100000000     0.183400000000     0.052200000000    -0.624      
O1       O      0.816600000000     0.743100000000     0.052200000000    -0.624      
O1       O      0.256900000000     0.816600000000     0.052200000000    -0.624      
O1       O      0.183400000000     0.743100000000     0.947800000000    -0.624      
O1       O      0.256900000000     0.183400000000     0.947800000000    -0.624      
O1       O      0.816600000000     0.256900000000     0.947800000000    -0.624      
O1       O      0.743100000000     0.816600000000     0.947800000000    -0.624      
O1       O      0.552200000000     0.183400000000     0.756900000000    -0.624      
O1       O      0.816600000000     0.552200000000     0.756900000000    -0.624      
O1       O      0.447800000000     0.816600000000     0.756900000000    -0.624      
O1       O      0.183400000000     0.447800000000     0.756900000000    -0.624      
O1       O      0.552200000000     0.816600000000     0.243100000000    -0.624      
O1       O      0.183400000000     0.552200000000     0.243100000000    -0.624      
O1       O      0.447800000000     0.183400000000     0.243100000000    -0.624      
O1       O      0.816600000000     0.447800000000     0.243100000000    -0.624      
O1       O      0.256900000000     0.552200000000     0.683400000000    -0.624      
O1       O      0.256900000000     0.447800000000     0.316600000000    -0.624      
O1       O      0.552200000000     0.256900000000     0.316600000000    -0.624      
O1       O      0.743100000000     0.552200000000     0.316600000000    -0.624      
O1       O      0.447800000000     0.743100000000     0.316600000000    -0.624      
O1       O      0.743100000000     0.447800000000     0.683400000000    -0.624      
O1       O      0.552200000000     0.743100000000     0.683400000000    -0.624      
O1       O      0.447800000000     0.256900000000     0.683400000000    -0.624      


